# LAMMPS data file 
 
96500 atoms 
0 bonds 
0 angles 
0 dihedrals 
0 impropers

2 atom types 

-120.0 370.6727 xlo xhi 
-130.67270000000002 360.0 ylo yhi 
0.0 490.6727 zlo zhi 

Masses 

1 12 
2 6.941 

Atoms 

1 1 1 0 6.78 0.0 0.0 
2 1 1 0 6.6318 1.4096 0.0 
3 1 1 0 5.4851 3.9852 0.0 
4 1 1 0 4.5367 5.0385 0.0 
5 1 1 0 2.0951 6.4482 0.0 
6 1 1 0 0.7087 6.7429 0.0 
7 1 1 0 -2.0951 6.4482 0.0 
8 1 1 0 -3.39 5.8717 0.0 
9 1 1 0 -5.4851 3.9852 0.0 
10 1 1 0 -6.1938 2.7577 0.0 
11 1 1 0 -6.78 0.0 0.0 
12 1 1 0 -6.6318 -1.4096 0.0 
13 1 1 0 -5.4851 -3.9852 0.0 
14 1 1 0 -4.5367 -5.0385 0.0 
15 1 1 0 -2.0951 -6.4482 0.0 
16 1 1 0 -0.7087 -6.7429 0.0 
17 1 1 0 2.0951 -6.4482 0.0 
18 1 1 0 3.39 -5.8717 0.0 
19 1 1 0 5.4851 -3.9852 0.0 
20 1 1 0 6.1938 -2.7577 0.0 
21 1 1 0 6.4482 2.0951 1.2298 
22 1 1 0 5.8717 3.39 1.2298 
23 1 1 0 3.9852 5.4851 1.2298 
24 1 1 0 2.7577 6.1938 1.2298 
25 1 1 0 0.0 6.78 1.2298 
26 1 1 0 -1.4096 6.6318 1.2298 
27 1 1 0 -3.9852 5.4851 1.2298 
28 1 1 0 -5.0385 4.5367 1.2298 
29 1 1 0 -6.4482 2.0951 1.2298 
30 1 1 0 -6.7429 0.7087 1.2298 
31 1 1 0 -6.4482 -2.0951 1.2298 
32 1 1 0 -5.8717 -3.39 1.2298 
33 1 1 0 -3.9852 -5.4851 1.2298 
34 1 1 0 -2.7577 -6.1938 1.2298 
35 1 1 0 0.0 -6.78 1.2298 
36 1 1 0 1.4096 -6.6318 1.2298 
37 1 1 0 3.9852 -5.4851 1.2298 
38 1 1 0 5.0385 -4.5367 1.2298 
39 1 1 0 6.4482 -2.0951 1.2298 
40 1 1 0 6.7429 -0.7087 1.2298 
41 1 1 0 5.4851 3.9852 2.4595 
42 1 1 0 4.5367 5.0385 2.4595 
43 1 1 0 2.0951 6.4482 2.4595 
44 1 1 0 0.7087 6.7429 2.4595 
45 1 1 0 -2.0951 6.4482 2.4595 
46 1 1 0 -3.39 5.8717 2.4595 
47 1 1 0 -5.4851 3.9852 2.4595 
48 1 1 0 -6.1938 2.7577 2.4595 
49 1 1 0 -6.78 0.0 2.4595 
50 1 1 0 -6.6318 -1.4096 2.4595 
51 1 1 0 -5.4851 -3.9852 2.4595 
52 1 1 0 -4.5367 -5.0385 2.4595 
53 1 1 0 -2.0951 -6.4482 2.4595 
54 1 1 0 -0.7087 -6.7429 2.4595 
55 1 1 0 2.0951 -6.4482 2.4595 
56 1 1 0 3.39 -5.8717 2.4595 
57 1 1 0 5.4851 -3.9852 2.4595 
58 1 1 0 6.1938 -2.7577 2.4595 
59 1 1 0 6.78 0.0 2.4595 
60 1 1 0 6.6318 1.4096 2.4595 
61 1 1 0 3.9852 5.4851 3.6893 
62 1 1 0 2.7577 6.1938 3.6893 
63 1 1 0 0.0 6.78 3.6893 
64 1 1 0 -1.4096 6.6318 3.6893 
65 1 1 0 -3.9852 5.4851 3.6893 
66 1 1 0 -5.0385 4.5367 3.6893 
67 1 1 0 -6.4482 2.0951 3.6893 
68 1 1 0 -6.7429 0.7087 3.6893 
69 1 1 0 -6.4482 -2.0951 3.6893 
70 1 1 0 -5.8717 -3.39 3.6893 
71 1 1 0 -3.9852 -5.4851 3.6893 
72 1 1 0 -2.7577 -6.1938 3.6893 
73 1 1 0 0.0 -6.78 3.6893 
74 1 1 0 1.4096 -6.6318 3.6893 
75 1 1 0 3.9852 -5.4851 3.6893 
76 1 1 0 5.0385 -4.5367 3.6893 
77 1 1 0 6.4482 -2.0951 3.6893 
78 1 1 0 6.7429 -0.7087 3.6893 
79 1 1 0 6.4482 2.0951 3.6893 
80 1 1 0 5.8717 3.39 3.6893 
81 1 1 0 2.0951 6.4482 4.919 
82 1 1 0 0.7087 6.7429 4.919 
83 1 1 0 -2.0951 6.4482 4.919 
84 1 1 0 -3.39 5.8717 4.919 
85 1 1 0 -5.4851 3.9852 4.919 
86 1 1 0 -6.1938 2.7577 4.919 
87 1 1 0 -6.78 0.0 4.919 
88 1 1 0 -6.6318 -1.4096 4.919 
89 1 1 0 -5.4851 -3.9852 4.919 
90 1 1 0 -4.5367 -5.0385 4.919 
91 1 1 0 -2.0951 -6.4482 4.919 
92 1 1 0 -0.7087 -6.7429 4.919 
93 1 1 0 2.0951 -6.4482 4.919 
94 1 1 0 3.39 -5.8717 4.919 
95 1 1 0 5.4851 -3.9852 4.919 
96 1 1 0 6.1938 -2.7577 4.919 
97 1 1 0 6.78 0.0 4.919 
98 1 1 0 6.6318 1.4096 4.919 
99 1 1 0 5.4851 3.9852 4.919 
100 1 1 0 4.5367 5.0385 4.919 
101 1 1 0 0.0 6.78 6.1488 
102 1 1 0 -1.4096 6.6318 6.1488 
103 1 1 0 -3.9852 5.4851 6.1488 
104 1 1 0 -5.0385 4.5367 6.1488 
105 1 1 0 -6.4482 2.0951 6.1488 
106 1 1 0 -6.7429 0.7087 6.1488 
107 1 1 0 -6.4482 -2.0951 6.1488 
108 1 1 0 -5.8717 -3.39 6.1488 
109 1 1 0 -3.9852 -5.4851 6.1488 
110 1 1 0 -2.7577 -6.1938 6.1488 
111 1 1 0 0.0 -6.78 6.1488 
112 1 1 0 1.4096 -6.6318 6.1488 
113 1 1 0 3.9852 -5.4851 6.1488 
114 1 1 0 5.0385 -4.5367 6.1488 
115 1 1 0 6.4482 -2.0951 6.1488 
116 1 1 0 6.7429 -0.7087 6.1488 
117 1 1 0 6.4482 2.0951 6.1488 
118 1 1 0 5.8717 3.39 6.1488 
119 1 1 0 3.9852 5.4851 6.1488 
120 1 1 0 2.7577 6.1938 6.1488 
121 1 1 0 -2.0951 6.4482 7.3785 
122 1 1 0 -3.39 5.8717 7.3785 
123 1 1 0 -5.4851 3.9852 7.3785 
124 1 1 0 -6.1938 2.7577 7.3785 
125 1 1 0 -6.78 0.0 7.3785 
126 1 1 0 -6.6318 -1.4096 7.3785 
127 1 1 0 -5.4851 -3.9852 7.3785 
128 1 1 0 -4.5367 -5.0385 7.3785 
129 1 1 0 -2.0951 -6.4482 7.3785 
130 1 1 0 -0.7087 -6.7429 7.3785 
131 1 1 0 2.0951 -6.4482 7.3785 
132 1 1 0 3.39 -5.8717 7.3785 
133 1 1 0 5.4851 -3.9852 7.3785 
134 1 1 0 6.1938 -2.7577 7.3785 
135 1 1 0 6.78 0.0 7.3785 
136 1 1 0 6.6318 1.4096 7.3785 
137 1 1 0 5.4851 3.9852 7.3785 
138 1 1 0 4.5367 5.0385 7.3785 
139 1 1 0 2.0951 6.4482 7.3785 
140 1 1 0 0.7087 6.7429 7.3785 
141 1 1 0 -3.9852 5.4851 8.6083 
142 1 1 0 -5.0385 4.5367 8.6083 
143 1 1 0 -6.4482 2.0951 8.6083 
144 1 1 0 -6.7429 0.7087 8.6083 
145 1 1 0 -6.4482 -2.0951 8.6083 
146 1 1 0 -5.8717 -3.39 8.6083 
147 1 1 0 -3.9852 -5.4851 8.6083 
148 1 1 0 -2.7577 -6.1938 8.6083 
149 1 1 0 0.0 -6.78 8.6083 
150 1 1 0 1.4096 -6.6318 8.6083 
151 1 1 0 3.9852 -5.4851 8.6083 
152 1 1 0 5.0385 -4.5367 8.6083 
153 1 1 0 6.4482 -2.0951 8.6083 
154 1 1 0 6.7429 -0.7087 8.6083 
155 1 1 0 6.4482 2.0951 8.6083 
156 1 1 0 5.8717 3.39 8.6083 
157 1 1 0 3.9852 5.4851 8.6083 
158 1 1 0 2.7577 6.1938 8.6083 
159 1 1 0 0.0 6.78 8.6083 
160 1 1 0 -1.4096 6.6318 8.6083 
161 1 1 0 -5.4851 3.9852 9.838 
162 1 1 0 -6.1938 2.7577 9.838 
163 1 1 0 -6.78 0.0 9.838 
164 1 1 0 -6.6318 -1.4096 9.838 
165 1 1 0 -5.4851 -3.9852 9.838 
166 1 1 0 -4.5367 -5.0385 9.838 
167 1 1 0 -2.0951 -6.4482 9.838 
168 1 1 0 -0.7087 -6.7429 9.838 
169 1 1 0 2.0951 -6.4482 9.838 
170 1 1 0 3.39 -5.8717 9.838 
171 1 1 0 5.4851 -3.9852 9.838 
172 1 1 0 6.1938 -2.7577 9.838 
173 1 1 0 6.78 0.0 9.838 
174 1 1 0 6.6318 1.4096 9.838 
175 1 1 0 5.4851 3.9852 9.838 
176 1 1 0 4.5367 5.0385 9.838 
177 1 1 0 2.0951 6.4482 9.838 
178 1 1 0 0.7087 6.7429 9.838 
179 1 1 0 -2.0951 6.4482 9.838 
180 1 1 0 -3.39 5.8717 9.838 
181 1 1 0 -6.4482 2.0951 11.0678 
182 1 1 0 -6.7429 0.7087 11.0678 
183 1 1 0 -6.4482 -2.0951 11.0678 
184 1 1 0 -5.8717 -3.39 11.0678 
185 1 1 0 -3.9852 -5.4851 11.0678 
186 1 1 0 -2.7577 -6.1938 11.0678 
187 1 1 0 0.0 -6.78 11.0678 
188 1 1 0 1.4096 -6.6318 11.0678 
189 1 1 0 3.9852 -5.4851 11.0678 
190 1 1 0 5.0385 -4.5367 11.0678 
191 1 1 0 6.4482 -2.0951 11.0678 
192 1 1 0 6.7429 -0.7087 11.0678 
193 1 1 0 6.4482 2.0951 11.0678 
194 1 1 0 5.8717 3.39 11.0678 
195 1 1 0 3.9852 5.4851 11.0678 
196 1 1 0 2.7577 6.1938 11.0678 
197 1 1 0 0.0 6.78 11.0678 
198 1 1 0 -1.4096 6.6318 11.0678 
199 1 1 0 -3.9852 5.4851 11.0678 
200 1 1 0 -5.0385 4.5367 11.0678 
201 1 1 0 -6.78 0.0 12.2976 
202 1 1 0 -6.6318 -1.4096 12.2976 
203 1 1 0 -5.4851 -3.9852 12.2976 
204 1 1 0 -4.5367 -5.0385 12.2976 
205 1 1 0 -2.0951 -6.4482 12.2976 
206 1 1 0 -0.7087 -6.7429 12.2976 
207 1 1 0 2.0951 -6.4482 12.2976 
208 1 1 0 3.39 -5.8717 12.2976 
209 1 1 0 5.4851 -3.9852 12.2976 
210 1 1 0 6.1938 -2.7577 12.2976 
211 1 1 0 6.78 0.0 12.2976 
212 1 1 0 6.6318 1.4096 12.2976 
213 1 1 0 5.4851 3.9852 12.2976 
214 1 1 0 4.5367 5.0385 12.2976 
215 1 1 0 2.0951 6.4482 12.2976 
216 1 1 0 0.7087 6.7429 12.2976 
217 1 1 0 -2.0951 6.4482 12.2976 
218 1 1 0 -3.39 5.8717 12.2976 
219 1 1 0 -5.4851 3.9852 12.2976 
220 1 1 0 -6.1938 2.7577 12.2976 
221 1 1 0 -6.4482 -2.0951 13.5273 
222 1 1 0 -5.8717 -3.39 13.5273 
223 1 1 0 -3.9852 -5.4851 13.5273 
224 1 1 0 -2.7577 -6.1938 13.5273 
225 1 1 0 0.0 -6.78 13.5273 
226 1 1 0 1.4096 -6.6318 13.5273 
227 1 1 0 3.9852 -5.4851 13.5273 
228 1 1 0 5.0385 -4.5367 13.5273 
229 1 1 0 6.4482 -2.0951 13.5273 
230 1 1 0 6.7429 -0.7087 13.5273 
231 1 1 0 6.4482 2.0951 13.5273 
232 1 1 0 5.8717 3.39 13.5273 
233 1 1 0 3.9852 5.4851 13.5273 
234 1 1 0 2.7577 6.1938 13.5273 
235 1 1 0 0.0 6.78 13.5273 
236 1 1 0 -1.4096 6.6318 13.5273 
237 1 1 0 -3.9852 5.4851 13.5273 
238 1 1 0 -5.0385 4.5367 13.5273 
239 1 1 0 -6.4482 2.0951 13.5273 
240 1 1 0 -6.7429 0.7087 13.5273 
241 1 1 0 -5.4851 -3.9852 14.7571 
242 1 1 0 -4.5367 -5.0385 14.7571 
243 1 1 0 -2.0951 -6.4482 14.7571 
244 1 1 0 -0.7087 -6.7429 14.7571 
245 1 1 0 2.0951 -6.4482 14.7571 
246 1 1 0 3.39 -5.8717 14.7571 
247 1 1 0 5.4851 -3.9852 14.7571 
248 1 1 0 6.1938 -2.7577 14.7571 
249 1 1 0 6.78 0.0 14.7571 
250 1 1 0 6.6318 1.4096 14.7571 
251 1 1 0 5.4851 3.9852 14.7571 
252 1 1 0 4.5367 5.0385 14.7571 
253 1 1 0 2.0951 6.4482 14.7571 
254 1 1 0 0.7087 6.7429 14.7571 
255 1 1 0 -2.0951 6.4482 14.7571 
256 1 1 0 -3.39 5.8717 14.7571 
257 1 1 0 -5.4851 3.9852 14.7571 
258 1 1 0 -6.1938 2.7577 14.7571 
259 1 1 0 -6.78 0.0 14.7571 
260 1 1 0 -6.6318 -1.4096 14.7571 
261 1 1 0 -3.9852 -5.4851 15.9868 
262 1 1 0 -2.7577 -6.1938 15.9868 
263 1 1 0 0.0 -6.78 15.9868 
264 1 1 0 1.4096 -6.6318 15.9868 
265 1 1 0 3.9852 -5.4851 15.9868 
266 1 1 0 5.0385 -4.5367 15.9868 
267 1 1 0 6.4482 -2.0951 15.9868 
268 1 1 0 6.7429 -0.7087 15.9868 
269 1 1 0 6.4482 2.0951 15.9868 
270 1 1 0 5.8717 3.39 15.9868 
271 1 1 0 3.9852 5.4851 15.9868 
272 1 1 0 2.7577 6.1938 15.9868 
273 1 1 0 0.0 6.78 15.9868 
274 1 1 0 -1.4096 6.6318 15.9868 
275 1 1 0 -3.9852 5.4851 15.9868 
276 1 1 0 -5.0385 4.5367 15.9868 
277 1 1 0 -6.4482 2.0951 15.9868 
278 1 1 0 -6.7429 0.7087 15.9868 
279 1 1 0 -6.4482 -2.0951 15.9868 
280 1 1 0 -5.8717 -3.39 15.9868 
281 1 1 0 -2.0951 -6.4482 17.2166 
282 1 1 0 -0.7087 -6.7429 17.2166 
283 1 1 0 2.0951 -6.4482 17.2166 
284 1 1 0 3.39 -5.8717 17.2166 
285 1 1 0 5.4851 -3.9852 17.2166 
286 1 1 0 6.1938 -2.7577 17.2166 
287 1 1 0 6.78 0.0 17.2166 
288 1 1 0 6.6318 1.4096 17.2166 
289 1 1 0 5.4851 3.9852 17.2166 
290 1 1 0 4.5367 5.0385 17.2166 
291 1 1 0 2.0951 6.4482 17.2166 
292 1 1 0 0.7087 6.7429 17.2166 
293 1 1 0 -2.0951 6.4482 17.2166 
294 1 1 0 -3.39 5.8717 17.2166 
295 1 1 0 -5.4851 3.9852 17.2166 
296 1 1 0 -6.1938 2.7577 17.2166 
297 1 1 0 -6.78 0.0 17.2166 
298 1 1 0 -6.6318 -1.4096 17.2166 
299 1 1 0 -5.4851 -3.9852 17.2166 
300 1 1 0 -4.5367 -5.0385 17.2166 
301 1 1 0 0.0 -6.78 18.4463 
302 1 1 0 1.4096 -6.6318 18.4463 
303 1 1 0 3.9852 -5.4851 18.4463 
304 1 1 0 5.0385 -4.5367 18.4463 
305 1 1 0 6.4482 -2.0951 18.4463 
306 1 1 0 6.7429 -0.7087 18.4463 
307 1 1 0 6.4482 2.0951 18.4463 
308 1 1 0 5.8717 3.39 18.4463 
309 1 1 0 3.9852 5.4851 18.4463 
310 1 1 0 2.7577 6.1938 18.4463 
311 1 1 0 0.0 6.78 18.4463 
312 1 1 0 -1.4096 6.6318 18.4463 
313 1 1 0 -3.9852 5.4851 18.4463 
314 1 1 0 -5.0385 4.5367 18.4463 
315 1 1 0 -6.4482 2.0951 18.4463 
316 1 1 0 -6.7429 0.7087 18.4463 
317 1 1 0 -6.4482 -2.0951 18.4463 
318 1 1 0 -5.8717 -3.39 18.4463 
319 1 1 0 -3.9852 -5.4851 18.4463 
320 1 1 0 -2.7577 -6.1938 18.4463 
321 1 1 0 2.0951 -6.4482 19.6761 
322 1 1 0 3.39 -5.8717 19.6761 
323 1 1 0 5.4851 -3.9852 19.6761 
324 1 1 0 6.1938 -2.7577 19.6761 
325 1 1 0 6.78 0.0 19.6761 
326 1 1 0 6.6318 1.4096 19.6761 
327 1 1 0 5.4851 3.9852 19.6761 
328 1 1 0 4.5367 5.0385 19.6761 
329 1 1 0 2.0951 6.4482 19.6761 
330 1 1 0 0.7087 6.7429 19.6761 
331 1 1 0 -2.0951 6.4482 19.6761 
332 1 1 0 -3.39 5.8717 19.6761 
333 1 1 0 -5.4851 3.9852 19.6761 
334 1 1 0 -6.1938 2.7577 19.6761 
335 1 1 0 -6.78 0.0 19.6761 
336 1 1 0 -6.6318 -1.4096 19.6761 
337 1 1 0 -5.4851 -3.9852 19.6761 
338 1 1 0 -4.5367 -5.0385 19.6761 
339 1 1 0 -2.0951 -6.4482 19.6761 
340 1 1 0 -0.7087 -6.7429 19.6761 
341 1 1 0 3.9852 -5.4851 20.9059 
342 1 1 0 5.0385 -4.5367 20.9059 
343 1 1 0 6.4482 -2.0951 20.9059 
344 1 1 0 6.7429 -0.7087 20.9059 
345 1 1 0 6.4482 2.0951 20.9059 
346 1 1 0 5.8717 3.39 20.9059 
347 1 1 0 3.9852 5.4851 20.9059 
348 1 1 0 2.7577 6.1938 20.9059 
349 1 1 0 0.0 6.78 20.9059 
350 1 1 0 -1.4096 6.6318 20.9059 
351 1 1 0 -3.9852 5.4851 20.9059 
352 1 1 0 -5.0385 4.5367 20.9059 
353 1 1 0 -6.4482 2.0951 20.9059 
354 1 1 0 -6.7429 0.7087 20.9059 
355 1 1 0 -6.4482 -2.0951 20.9059 
356 1 1 0 -5.8717 -3.39 20.9059 
357 1 1 0 -3.9852 -5.4851 20.9059 
358 1 1 0 -2.7577 -6.1938 20.9059 
359 1 1 0 0.0 -6.78 20.9059 
360 1 1 0 1.4096 -6.6318 20.9059 
361 1 1 0 5.4851 -3.9852 22.1356 
362 1 1 0 6.1938 -2.7577 22.1356 
363 1 1 0 6.78 0.0 22.1356 
364 1 1 0 6.6318 1.4096 22.1356 
365 1 1 0 5.4851 3.9852 22.1356 
366 1 1 0 4.5367 5.0385 22.1356 
367 1 1 0 2.0951 6.4482 22.1356 
368 1 1 0 0.7087 6.7429 22.1356 
369 1 1 0 -2.0951 6.4482 22.1356 
370 1 1 0 -3.39 5.8717 22.1356 
371 1 1 0 -5.4851 3.9852 22.1356 
372 1 1 0 -6.1938 2.7577 22.1356 
373 1 1 0 -6.78 0.0 22.1356 
374 1 1 0 -6.6318 -1.4096 22.1356 
375 1 1 0 -5.4851 -3.9852 22.1356 
376 1 1 0 -4.5367 -5.0385 22.1356 
377 1 1 0 -2.0951 -6.4482 22.1356 
378 1 1 0 -0.7087 -6.7429 22.1356 
379 1 1 0 2.0951 -6.4482 22.1356 
380 1 1 0 3.39 -5.8717 22.1356 
381 1 1 0 6.4482 -2.0951 23.3654 
382 1 1 0 6.7429 -0.7087 23.3654 
383 1 1 0 6.4482 2.0951 23.3654 
384 1 1 0 5.8717 3.39 23.3654 
385 1 1 0 3.9852 5.4851 23.3654 
386 1 1 0 2.7577 6.1938 23.3654 
387 1 1 0 0.0 6.78 23.3654 
388 1 1 0 -1.4096 6.6318 23.3654 
389 1 1 0 -3.9852 5.4851 23.3654 
390 1 1 0 -5.0385 4.5367 23.3654 
391 1 1 0 -6.4482 2.0951 23.3654 
392 1 1 0 -6.7429 0.7087 23.3654 
393 1 1 0 -6.4482 -2.0951 23.3654 
394 1 1 0 -5.8717 -3.39 23.3654 
395 1 1 0 -3.9852 -5.4851 23.3654 
396 1 1 0 -2.7577 -6.1938 23.3654 
397 1 1 0 0.0 -6.78 23.3654 
398 1 1 0 1.4096 -6.6318 23.3654 
399 1 1 0 3.9852 -5.4851 23.3654 
400 1 1 0 5.0385 -4.5367 23.3654 
401 1 1 0 6.78 0.0 24.5951 
402 1 1 0 6.6318 1.4096 24.5951 
403 1 1 0 5.4851 3.9852 24.5951 
404 1 1 0 4.5367 5.0385 24.5951 
405 1 1 0 2.0951 6.4482 24.5951 
406 1 1 0 0.7087 6.7429 24.5951 
407 1 1 0 -2.0951 6.4482 24.5951 
408 1 1 0 -3.39 5.8717 24.5951 
409 1 1 0 -5.4851 3.9852 24.5951 
410 1 1 0 -6.1938 2.7577 24.5951 
411 1 1 0 -6.78 0.0 24.5951 
412 1 1 0 -6.6318 -1.4096 24.5951 
413 1 1 0 -5.4851 -3.9852 24.5951 
414 1 1 0 -4.5367 -5.0385 24.5951 
415 1 1 0 -2.0951 -6.4482 24.5951 
416 1 1 0 -0.7087 -6.7429 24.5951 
417 1 1 0 2.0951 -6.4482 24.5951 
418 1 1 0 3.39 -5.8717 24.5951 
419 1 1 0 5.4851 -3.9852 24.5951 
420 1 1 0 6.1938 -2.7577 24.5951 
421 1 1 0 6.4482 2.0951 25.8249 
422 1 1 0 5.8717 3.39 25.8249 
423 1 1 0 3.9852 5.4851 25.8249 
424 1 1 0 2.7577 6.1938 25.8249 
425 1 1 0 0.0 6.78 25.8249 
426 1 1 0 -1.4096 6.6318 25.8249 
427 1 1 0 -3.9852 5.4851 25.8249 
428 1 1 0 -5.0385 4.5367 25.8249 
429 1 1 0 -6.4482 2.0951 25.8249 
430 1 1 0 -6.7429 0.7087 25.8249 
431 1 1 0 -6.4482 -2.0951 25.8249 
432 1 1 0 -5.8717 -3.39 25.8249 
433 1 1 0 -3.9852 -5.4851 25.8249 
434 1 1 0 -2.7577 -6.1938 25.8249 
435 1 1 0 0.0 -6.78 25.8249 
436 1 1 0 1.4096 -6.6318 25.8249 
437 1 1 0 3.9852 -5.4851 25.8249 
438 1 1 0 5.0385 -4.5367 25.8249 
439 1 1 0 6.4482 -2.0951 25.8249 
440 1 1 0 6.7429 -0.7087 25.8249 
441 1 1 0 5.4851 3.9852 27.0546 
442 1 1 0 4.5367 5.0385 27.0546 
443 1 1 0 2.0951 6.4482 27.0546 
444 1 1 0 0.7087 6.7429 27.0546 
445 1 1 0 -2.0951 6.4482 27.0546 
446 1 1 0 -3.39 5.8717 27.0546 
447 1 1 0 -5.4851 3.9852 27.0546 
448 1 1 0 -6.1938 2.7577 27.0546 
449 1 1 0 -6.78 0.0 27.0546 
450 1 1 0 -6.6318 -1.4096 27.0546 
451 1 1 0 -5.4851 -3.9852 27.0546 
452 1 1 0 -4.5367 -5.0385 27.0546 
453 1 1 0 -2.0951 -6.4482 27.0546 
454 1 1 0 -0.7087 -6.7429 27.0546 
455 1 1 0 2.0951 -6.4482 27.0546 
456 1 1 0 3.39 -5.8717 27.0546 
457 1 1 0 5.4851 -3.9852 27.0546 
458 1 1 0 6.1938 -2.7577 27.0546 
459 1 1 0 6.78 0.0 27.0546 
460 1 1 0 6.6318 1.4096 27.0546 
461 1 1 0 3.9852 5.4851 28.2844 
462 1 1 0 2.7577 6.1938 28.2844 
463 1 1 0 0.0 6.78 28.2844 
464 1 1 0 -1.4096 6.6318 28.2844 
465 1 1 0 -3.9852 5.4851 28.2844 
466 1 1 0 -5.0385 4.5367 28.2844 
467 1 1 0 -6.4482 2.0951 28.2844 
468 1 1 0 -6.7429 0.7087 28.2844 
469 1 1 0 -6.4482 -2.0951 28.2844 
470 1 1 0 -5.8717 -3.39 28.2844 
471 1 1 0 -3.9852 -5.4851 28.2844 
472 1 1 0 -2.7577 -6.1938 28.2844 
473 1 1 0 0.0 -6.78 28.2844 
474 1 1 0 1.4096 -6.6318 28.2844 
475 1 1 0 3.9852 -5.4851 28.2844 
476 1 1 0 5.0385 -4.5367 28.2844 
477 1 1 0 6.4482 -2.0951 28.2844 
478 1 1 0 6.7429 -0.7087 28.2844 
479 1 1 0 6.4482 2.0951 28.2844 
480 1 1 0 5.8717 3.39 28.2844 
481 1 1 0 2.0951 6.4482 29.5141 
482 1 1 0 0.7087 6.7429 29.5141 
483 1 1 0 -2.0951 6.4482 29.5141 
484 1 1 0 -3.39 5.8717 29.5141 
485 1 1 0 -5.4851 3.9852 29.5141 
486 1 1 0 -6.1938 2.7577 29.5141 
487 1 1 0 -6.78 0.0 29.5141 
488 1 1 0 -6.6318 -1.4096 29.5141 
489 1 1 0 -5.4851 -3.9852 29.5141 
490 1 1 0 -4.5367 -5.0385 29.5141 
491 1 1 0 -2.0951 -6.4482 29.5141 
492 1 1 0 -0.7087 -6.7429 29.5141 
493 1 1 0 2.0951 -6.4482 29.5141 
494 1 1 0 3.39 -5.8717 29.5141 
495 1 1 0 5.4851 -3.9852 29.5141 
496 1 1 0 6.1938 -2.7577 29.5141 
497 1 1 0 6.78 0.0 29.5141 
498 1 1 0 6.6318 1.4096 29.5141 
499 1 1 0 5.4851 3.9852 29.5141 
500 1 1 0 4.5367 5.0385 29.5141 
501 1 1 0 0.0 6.78 30.7439 
502 1 1 0 -1.4096 6.6318 30.7439 
503 1 1 0 -3.9852 5.4851 30.7439 
504 1 1 0 -5.0385 4.5367 30.7439 
505 1 1 0 -6.4482 2.0951 30.7439 
506 1 1 0 -6.7429 0.7087 30.7439 
507 1 1 0 -6.4482 -2.0951 30.7439 
508 1 1 0 -5.8717 -3.39 30.7439 
509 1 1 0 -3.9852 -5.4851 30.7439 
510 1 1 0 -2.7577 -6.1938 30.7439 
511 1 1 0 0.0 -6.78 30.7439 
512 1 1 0 1.4096 -6.6318 30.7439 
513 1 1 0 3.9852 -5.4851 30.7439 
514 1 1 0 5.0385 -4.5367 30.7439 
515 1 1 0 6.4482 -2.0951 30.7439 
516 1 1 0 6.7429 -0.7087 30.7439 
517 1 1 0 6.4482 2.0951 30.7439 
518 1 1 0 5.8717 3.39 30.7439 
519 1 1 0 3.9852 5.4851 30.7439 
520 1 1 0 2.7577 6.1938 30.7439 
521 1 1 0 -2.0951 6.4482 31.9737 
522 1 1 0 -3.39 5.8717 31.9737 
523 1 1 0 -5.4851 3.9852 31.9737 
524 1 1 0 -6.1938 2.7577 31.9737 
525 1 1 0 -6.78 0.0 31.9737 
526 1 1 0 -6.6318 -1.4096 31.9737 
527 1 1 0 -5.4851 -3.9852 31.9737 
528 1 1 0 -4.5367 -5.0385 31.9737 
529 1 1 0 -2.0951 -6.4482 31.9737 
530 1 1 0 -0.7087 -6.7429 31.9737 
531 1 1 0 2.0951 -6.4482 31.9737 
532 1 1 0 3.39 -5.8717 31.9737 
533 1 1 0 5.4851 -3.9852 31.9737 
534 1 1 0 6.1938 -2.7577 31.9737 
535 1 1 0 6.78 0.0 31.9737 
536 1 1 0 6.6318 1.4096 31.9737 
537 1 1 0 5.4851 3.9852 31.9737 
538 1 1 0 4.5367 5.0385 31.9737 
539 1 1 0 2.0951 6.4482 31.9737 
540 1 1 0 0.7087 6.7429 31.9737 
541 1 1 0 -3.9852 5.4851 33.2034 
542 1 1 0 -5.0385 4.5367 33.2034 
543 1 1 0 -6.4482 2.0951 33.2034 
544 1 1 0 -6.7429 0.7087 33.2034 
545 1 1 0 -6.4482 -2.0951 33.2034 
546 1 1 0 -5.8717 -3.39 33.2034 
547 1 1 0 -3.9852 -5.4851 33.2034 
548 1 1 0 -2.7577 -6.1938 33.2034 
549 1 1 0 0.0 -6.78 33.2034 
550 1 1 0 1.4096 -6.6318 33.2034 
551 1 1 0 3.9852 -5.4851 33.2034 
552 1 1 0 5.0385 -4.5367 33.2034 
553 1 1 0 6.4482 -2.0951 33.2034 
554 1 1 0 6.7429 -0.7087 33.2034 
555 1 1 0 6.4482 2.0951 33.2034 
556 1 1 0 5.8717 3.39 33.2034 
557 1 1 0 3.9852 5.4851 33.2034 
558 1 1 0 2.7577 6.1938 33.2034 
559 1 1 0 0.0 6.78 33.2034 
560 1 1 0 -1.4096 6.6318 33.2034 
561 1 1 0 -5.4851 3.9852 34.4332 
562 1 1 0 -6.1938 2.7577 34.4332 
563 1 1 0 -6.78 0.0 34.4332 
564 1 1 0 -6.6318 -1.4096 34.4332 
565 1 1 0 -5.4851 -3.9852 34.4332 
566 1 1 0 -4.5367 -5.0385 34.4332 
567 1 1 0 -2.0951 -6.4482 34.4332 
568 1 1 0 -0.7087 -6.7429 34.4332 
569 1 1 0 2.0951 -6.4482 34.4332 
570 1 1 0 3.39 -5.8717 34.4332 
571 1 1 0 5.4851 -3.9852 34.4332 
572 1 1 0 6.1938 -2.7577 34.4332 
573 1 1 0 6.78 0.0 34.4332 
574 1 1 0 6.6318 1.4096 34.4332 
575 1 1 0 5.4851 3.9852 34.4332 
576 1 1 0 4.5367 5.0385 34.4332 
577 1 1 0 2.0951 6.4482 34.4332 
578 1 1 0 0.7087 6.7429 34.4332 
579 1 1 0 -2.0951 6.4482 34.4332 
580 1 1 0 -3.39 5.8717 34.4332 
581 1 1 0 -6.4482 2.0951 35.6629 
582 1 1 0 -6.7429 0.7087 35.6629 
583 1 1 0 -6.4482 -2.0951 35.6629 
584 1 1 0 -5.8717 -3.39 35.6629 
585 1 1 0 -3.9852 -5.4851 35.6629 
586 1 1 0 -2.7577 -6.1938 35.6629 
587 1 1 0 0.0 -6.78 35.6629 
588 1 1 0 1.4096 -6.6318 35.6629 
589 1 1 0 3.9852 -5.4851 35.6629 
590 1 1 0 5.0385 -4.5367 35.6629 
591 1 1 0 6.4482 -2.0951 35.6629 
592 1 1 0 6.7429 -0.7087 35.6629 
593 1 1 0 6.4482 2.0951 35.6629 
594 1 1 0 5.8717 3.39 35.6629 
595 1 1 0 3.9852 5.4851 35.6629 
596 1 1 0 2.7577 6.1938 35.6629 
597 1 1 0 0.0 6.78 35.6629 
598 1 1 0 -1.4096 6.6318 35.6629 
599 1 1 0 -3.9852 5.4851 35.6629 
600 1 1 0 -5.0385 4.5367 35.6629 
601 1 1 0 -6.78 0.0 36.8927 
602 1 1 0 -6.6318 -1.4096 36.8927 
603 1 1 0 -5.4851 -3.9852 36.8927 
604 1 1 0 -4.5367 -5.0385 36.8927 
605 1 1 0 -2.0951 -6.4482 36.8927 
606 1 1 0 -0.7087 -6.7429 36.8927 
607 1 1 0 2.0951 -6.4482 36.8927 
608 1 1 0 3.39 -5.8717 36.8927 
609 1 1 0 5.4851 -3.9852 36.8927 
610 1 1 0 6.1938 -2.7577 36.8927 
611 1 1 0 6.78 0.0 36.8927 
612 1 1 0 6.6318 1.4096 36.8927 
613 1 1 0 5.4851 3.9852 36.8927 
614 1 1 0 4.5367 5.0385 36.8927 
615 1 1 0 2.0951 6.4482 36.8927 
616 1 1 0 0.7087 6.7429 36.8927 
617 1 1 0 -2.0951 6.4482 36.8927 
618 1 1 0 -3.39 5.8717 36.8927 
619 1 1 0 -5.4851 3.9852 36.8927 
620 1 1 0 -6.1938 2.7577 36.8927 
621 1 1 0 -6.4482 -2.0951 38.1224 
622 1 1 0 -5.8717 -3.39 38.1224 
623 1 1 0 -3.9852 -5.4851 38.1224 
624 1 1 0 -2.7577 -6.1938 38.1224 
625 1 1 0 0.0 -6.78 38.1224 
626 1 1 0 1.4096 -6.6318 38.1224 
627 1 1 0 3.9852 -5.4851 38.1224 
628 1 1 0 5.0385 -4.5367 38.1224 
629 1 1 0 6.4482 -2.0951 38.1224 
630 1 1 0 6.7429 -0.7087 38.1224 
631 1 1 0 6.4482 2.0951 38.1224 
632 1 1 0 5.8717 3.39 38.1224 
633 1 1 0 3.9852 5.4851 38.1224 
634 1 1 0 2.7577 6.1938 38.1224 
635 1 1 0 0.0 6.78 38.1224 
636 1 1 0 -1.4096 6.6318 38.1224 
637 1 1 0 -3.9852 5.4851 38.1224 
638 1 1 0 -5.0385 4.5367 38.1224 
639 1 1 0 -6.4482 2.0951 38.1224 
640 1 1 0 -6.7429 0.7087 38.1224 
641 1 1 0 -5.4851 -3.9852 39.3522 
642 1 1 0 -4.5367 -5.0385 39.3522 
643 1 1 0 -2.0951 -6.4482 39.3522 
644 1 1 0 -0.7087 -6.7429 39.3522 
645 1 1 0 2.0951 -6.4482 39.3522 
646 1 1 0 3.39 -5.8717 39.3522 
647 1 1 0 5.4851 -3.9852 39.3522 
648 1 1 0 6.1938 -2.7577 39.3522 
649 1 1 0 6.78 0.0 39.3522 
650 1 1 0 6.6318 1.4096 39.3522 
651 1 1 0 5.4851 3.9852 39.3522 
652 1 1 0 4.5367 5.0385 39.3522 
653 1 1 0 2.0951 6.4482 39.3522 
654 1 1 0 0.7087 6.7429 39.3522 
655 1 1 0 -2.0951 6.4482 39.3522 
656 1 1 0 -3.39 5.8717 39.3522 
657 1 1 0 -5.4851 3.9852 39.3522 
658 1 1 0 -6.1938 2.7577 39.3522 
659 1 1 0 -6.78 0.0 39.3522 
660 1 1 0 -6.6318 -1.4096 39.3522 
661 1 1 0 -3.9852 -5.4851 40.582 
662 1 1 0 -2.7577 -6.1938 40.582 
663 1 1 0 0.0 -6.78 40.582 
664 1 1 0 1.4096 -6.6318 40.582 
665 1 1 0 3.9852 -5.4851 40.582 
666 1 1 0 5.0385 -4.5367 40.582 
667 1 1 0 6.4482 -2.0951 40.582 
668 1 1 0 6.7429 -0.7087 40.582 
669 1 1 0 6.4482 2.0951 40.582 
670 1 1 0 5.8717 3.39 40.582 
671 1 1 0 3.9852 5.4851 40.582 
672 1 1 0 2.7577 6.1938 40.582 
673 1 1 0 0.0 6.78 40.582 
674 1 1 0 -1.4096 6.6318 40.582 
675 1 1 0 -3.9852 5.4851 40.582 
676 1 1 0 -5.0385 4.5367 40.582 
677 1 1 0 -6.4482 2.0951 40.582 
678 1 1 0 -6.7429 0.7087 40.582 
679 1 1 0 -6.4482 -2.0951 40.582 
680 1 1 0 -5.8717 -3.39 40.582 
681 1 1 0 -2.0951 -6.4482 41.8117 
682 1 1 0 -0.7087 -6.7429 41.8117 
683 1 1 0 2.0951 -6.4482 41.8117 
684 1 1 0 3.39 -5.8717 41.8117 
685 1 1 0 5.4851 -3.9852 41.8117 
686 1 1 0 6.1938 -2.7577 41.8117 
687 1 1 0 6.78 0.0 41.8117 
688 1 1 0 6.6318 1.4096 41.8117 
689 1 1 0 5.4851 3.9852 41.8117 
690 1 1 0 4.5367 5.0385 41.8117 
691 1 1 0 2.0951 6.4482 41.8117 
692 1 1 0 0.7087 6.7429 41.8117 
693 1 1 0 -2.0951 6.4482 41.8117 
694 1 1 0 -3.39 5.8717 41.8117 
695 1 1 0 -5.4851 3.9852 41.8117 
696 1 1 0 -6.1938 2.7577 41.8117 
697 1 1 0 -6.78 0.0 41.8117 
698 1 1 0 -6.6318 -1.4096 41.8117 
699 1 1 0 -5.4851 -3.9852 41.8117 
700 1 1 0 -4.5367 -5.0385 41.8117 
701 1 1 0 0.0 -6.78 43.0415 
702 1 1 0 1.4096 -6.6318 43.0415 
703 1 1 0 3.9852 -5.4851 43.0415 
704 1 1 0 5.0385 -4.5367 43.0415 
705 1 1 0 6.4482 -2.0951 43.0415 
706 1 1 0 6.7429 -0.7087 43.0415 
707 1 1 0 6.4482 2.0951 43.0415 
708 1 1 0 5.8717 3.39 43.0415 
709 1 1 0 3.9852 5.4851 43.0415 
710 1 1 0 2.7577 6.1938 43.0415 
711 1 1 0 0.0 6.78 43.0415 
712 1 1 0 -1.4096 6.6318 43.0415 
713 1 1 0 -3.9852 5.4851 43.0415 
714 1 1 0 -5.0385 4.5367 43.0415 
715 1 1 0 -6.4482 2.0951 43.0415 
716 1 1 0 -6.7429 0.7087 43.0415 
717 1 1 0 -6.4482 -2.0951 43.0415 
718 1 1 0 -5.8717 -3.39 43.0415 
719 1 1 0 -3.9852 -5.4851 43.0415 
720 1 1 0 -2.7577 -6.1938 43.0415 
721 1 1 0 2.0951 -6.4482 44.2712 
722 1 1 0 3.39 -5.8717 44.2712 
723 1 1 0 5.4851 -3.9852 44.2712 
724 1 1 0 6.1938 -2.7577 44.2712 
725 1 1 0 6.78 0.0 44.2712 
726 1 1 0 6.6318 1.4096 44.2712 
727 1 1 0 5.4851 3.9852 44.2712 
728 1 1 0 4.5367 5.0385 44.2712 
729 1 1 0 2.0951 6.4482 44.2712 
730 1 1 0 0.7087 6.7429 44.2712 
731 1 1 0 -2.0951 6.4482 44.2712 
732 1 1 0 -3.39 5.8717 44.2712 
733 1 1 0 -5.4851 3.9852 44.2712 
734 1 1 0 -6.1938 2.7577 44.2712 
735 1 1 0 -6.78 0.0 44.2712 
736 1 1 0 -6.6318 -1.4096 44.2712 
737 1 1 0 -5.4851 -3.9852 44.2712 
738 1 1 0 -4.5367 -5.0385 44.2712 
739 1 1 0 -2.0951 -6.4482 44.2712 
740 1 1 0 -0.7087 -6.7429 44.2712 
741 1 1 0 3.9852 -5.4851 45.501 
742 1 1 0 5.0385 -4.5367 45.501 
743 1 1 0 6.4482 -2.0951 45.501 
744 1 1 0 6.7429 -0.7087 45.501 
745 1 1 0 6.4482 2.0951 45.501 
746 1 1 0 5.8717 3.39 45.501 
747 1 1 0 3.9852 5.4851 45.501 
748 1 1 0 2.7577 6.1938 45.501 
749 1 1 0 0.0 6.78 45.501 
750 1 1 0 -1.4096 6.6318 45.501 
751 1 1 0 -3.9852 5.4851 45.501 
752 1 1 0 -5.0385 4.5367 45.501 
753 1 1 0 -6.4482 2.0951 45.501 
754 1 1 0 -6.7429 0.7087 45.501 
755 1 1 0 -6.4482 -2.0951 45.501 
756 1 1 0 -5.8717 -3.39 45.501 
757 1 1 0 -3.9852 -5.4851 45.501 
758 1 1 0 -2.7577 -6.1938 45.501 
759 1 1 0 0.0 -6.78 45.501 
760 1 1 0 1.4096 -6.6318 45.501 
761 1 1 0 5.4851 -3.9852 46.7307 
762 1 1 0 6.1938 -2.7577 46.7307 
763 1 1 0 6.78 0.0 46.7307 
764 1 1 0 6.6318 1.4096 46.7307 
765 1 1 0 5.4851 3.9852 46.7307 
766 1 1 0 4.5367 5.0385 46.7307 
767 1 1 0 2.0951 6.4482 46.7307 
768 1 1 0 0.7087 6.7429 46.7307 
769 1 1 0 -2.0951 6.4482 46.7307 
770 1 1 0 -3.39 5.8717 46.7307 
771 1 1 0 -5.4851 3.9852 46.7307 
772 1 1 0 -6.1938 2.7577 46.7307 
773 1 1 0 -6.78 0.0 46.7307 
774 1 1 0 -6.6318 -1.4096 46.7307 
775 1 1 0 -5.4851 -3.9852 46.7307 
776 1 1 0 -4.5367 -5.0385 46.7307 
777 1 1 0 -2.0951 -6.4482 46.7307 
778 1 1 0 -0.7087 -6.7429 46.7307 
779 1 1 0 2.0951 -6.4482 46.7307 
780 1 1 0 3.39 -5.8717 46.7307 
781 1 1 0 6.4482 -2.0951 47.9605 
782 1 1 0 6.7429 -0.7087 47.9605 
783 1 1 0 6.4482 2.0951 47.9605 
784 1 1 0 5.8717 3.39 47.9605 
785 1 1 0 3.9852 5.4851 47.9605 
786 1 1 0 2.7577 6.1938 47.9605 
787 1 1 0 0.0 6.78 47.9605 
788 1 1 0 -1.4096 6.6318 47.9605 
789 1 1 0 -3.9852 5.4851 47.9605 
790 1 1 0 -5.0385 4.5367 47.9605 
791 1 1 0 -6.4482 2.0951 47.9605 
792 1 1 0 -6.7429 0.7087 47.9605 
793 1 1 0 -6.4482 -2.0951 47.9605 
794 1 1 0 -5.8717 -3.39 47.9605 
795 1 1 0 -3.9852 -5.4851 47.9605 
796 1 1 0 -2.7577 -6.1938 47.9605 
797 1 1 0 0.0 -6.78 47.9605 
798 1 1 0 1.4096 -6.6318 47.9605 
799 1 1 0 3.9852 -5.4851 47.9605 
800 1 1 0 5.0385 -4.5367 47.9605 
801 1 1 0 6.78 0.0 49.1902 
802 1 1 0 6.6318 1.4096 49.1902 
803 1 1 0 5.4851 3.9852 49.1902 
804 1 1 0 4.5367 5.0385 49.1902 
805 1 1 0 2.0951 6.4482 49.1902 
806 1 1 0 0.7087 6.7429 49.1902 
807 1 1 0 -2.0951 6.4482 49.1902 
808 1 1 0 -3.39 5.8717 49.1902 
809 1 1 0 -5.4851 3.9852 49.1902 
810 1 1 0 -6.1938 2.7577 49.1902 
811 1 1 0 -6.78 0.0 49.1902 
812 1 1 0 -6.6318 -1.4096 49.1902 
813 1 1 0 -5.4851 -3.9852 49.1902 
814 1 1 0 -4.5367 -5.0385 49.1902 
815 1 1 0 -2.0951 -6.4482 49.1902 
816 1 1 0 -0.7087 -6.7429 49.1902 
817 1 1 0 2.0951 -6.4482 49.1902 
818 1 1 0 3.39 -5.8717 49.1902 
819 1 1 0 5.4851 -3.9852 49.1902 
820 1 1 0 6.1938 -2.7577 49.1902 
821 1 1 0 6.4482 2.0951 50.42 
822 1 1 0 5.8717 3.39 50.42 
823 1 1 0 3.9852 5.4851 50.42 
824 1 1 0 2.7577 6.1938 50.42 
825 1 1 0 0.0 6.78 50.42 
826 1 1 0 -1.4096 6.6318 50.42 
827 1 1 0 -3.9852 5.4851 50.42 
828 1 1 0 -5.0385 4.5367 50.42 
829 1 1 0 -6.4482 2.0951 50.42 
830 1 1 0 -6.7429 0.7087 50.42 
831 1 1 0 -6.4482 -2.0951 50.42 
832 1 1 0 -5.8717 -3.39 50.42 
833 1 1 0 -3.9852 -5.4851 50.42 
834 1 1 0 -2.7577 -6.1938 50.42 
835 1 1 0 0.0 -6.78 50.42 
836 1 1 0 1.4096 -6.6318 50.42 
837 1 1 0 3.9852 -5.4851 50.42 
838 1 1 0 5.0385 -4.5367 50.42 
839 1 1 0 6.4482 -2.0951 50.42 
840 1 1 0 6.7429 -0.7087 50.42 
841 1 1 0 5.4851 3.9852 51.6498 
842 1 1 0 4.5367 5.0385 51.6498 
843 1 1 0 2.0951 6.4482 51.6498 
844 1 1 0 0.7087 6.7429 51.6498 
845 1 1 0 -2.0951 6.4482 51.6498 
846 1 1 0 -3.39 5.8717 51.6498 
847 1 1 0 -5.4851 3.9852 51.6498 
848 1 1 0 -6.1938 2.7577 51.6498 
849 1 1 0 -6.78 0.0 51.6498 
850 1 1 0 -6.6318 -1.4096 51.6498 
851 1 1 0 -5.4851 -3.9852 51.6498 
852 1 1 0 -4.5367 -5.0385 51.6498 
853 1 1 0 -2.0951 -6.4482 51.6498 
854 1 1 0 -0.7087 -6.7429 51.6498 
855 1 1 0 2.0951 -6.4482 51.6498 
856 1 1 0 3.39 -5.8717 51.6498 
857 1 1 0 5.4851 -3.9852 51.6498 
858 1 1 0 6.1938 -2.7577 51.6498 
859 1 1 0 6.78 0.0 51.6498 
860 1 1 0 6.6318 1.4096 51.6498 
861 1 1 0 3.9852 5.4851 52.8795 
862 1 1 0 2.7577 6.1938 52.8795 
863 1 1 0 0.0 6.78 52.8795 
864 1 1 0 -1.4096 6.6318 52.8795 
865 1 1 0 -3.9852 5.4851 52.8795 
866 1 1 0 -5.0385 4.5367 52.8795 
867 1 1 0 -6.4482 2.0951 52.8795 
868 1 1 0 -6.7429 0.7087 52.8795 
869 1 1 0 -6.4482 -2.0951 52.8795 
870 1 1 0 -5.8717 -3.39 52.8795 
871 1 1 0 -3.9852 -5.4851 52.8795 
872 1 1 0 -2.7577 -6.1938 52.8795 
873 1 1 0 0.0 -6.78 52.8795 
874 1 1 0 1.4096 -6.6318 52.8795 
875 1 1 0 3.9852 -5.4851 52.8795 
876 1 1 0 5.0385 -4.5367 52.8795 
877 1 1 0 6.4482 -2.0951 52.8795 
878 1 1 0 6.7429 -0.7087 52.8795 
879 1 1 0 6.4482 2.0951 52.8795 
880 1 1 0 5.8717 3.39 52.8795 
881 1 1 0 2.0951 6.4482 54.1093 
882 1 1 0 0.7087 6.7429 54.1093 